 Q-Chem 4.4, Q-Chem, Inc., Pleasanton, CA (2016)
 Q-Chem 4.4.0 for Intel X86 Linux

User input:
--------------------------------------------------------------
$molecule
0 1
C       1.2290994110    -0.2648951642     0.0000138730
C      -0.0424050155     0.5765707840    -0.0000412512
N      -1.2895781384    -0.1844626053    -0.0000368083
H       2.1239586838     0.3574632141     0.0000698482
H       1.2639839348    -0.9052870957    -0.8820713487
H       1.2638121798    -0.9052086023     0.8821487436
H      -0.0520579379     1.2294511413    -0.8732462014
H      -0.0521267345     1.2293275761     0.8732588111
H      -1.3202626955    -0.7925234756    -0.8100269567
H      -1.3204268343    -0.7920382396     0.8102890308
$end

!Scan at UM06-2x/cc-pVTZ level and basis set
$rem
JOBTYPE       pes_scan
METHOD        M06-2X
UNRESTRICTED  true
BASIS         cc-pvtz
$end

$scan
tors 10 3 2 7 -180 180 10
$end

--------------------------------------------------------------

   12    -135.1530280731      5.32E-09 Convergence criterion met
 Total energy in the final basis set = -135.1530280731
   12    -135.1530158532      5.39E-09 Convergence criterion met
 Total energy in the final basis set = -135.1530158532
   12    -135.1530211259      5.41E-09 Convergence criterion met
 Total energy in the final basis set = -135.1530211259
   12    -135.1530243273      5.44E-09 Convergence criterion met
 Total energy in the final basis set = -135.1530243273
   12    -135.1530246882      5.44E-09 Convergence criterion met
 Total energy in the final basis set = -135.1530246882
 Final energy is   -135.153024688187
 **  OPTIMIZATION CONVERGED  **
   12    -135.1530246855      5.44E-09 Convergence criterion met
 Total energy in the final basis set = -135.1530246855
   12    -135.1519215187      6.10E-09 Convergence criterion met
 Total energy in the final basis set = -135.1519215187
 **  OPTIMIZATION CONVERGED  **
 **  OPTIMIZATION CONVERGED  **
   12    -135.1518822029      7.44E-09 Convergence criterion met
 Total energy in the final basis set = -135.1518822029
   12    -135.1523661726      6.98E-09 Convergence criterion met
 Total energy in the final basis set = -135.1523661726
   12    -135.1526985521      5.89E-09 Convergence criterion met
 Total energy in the final basis set = -135.1526985521
   12    -135.1527532981      5.54E-09 Convergence criterion met
 Total energy in the final basis set = -135.1527532981
   12    -135.1527775119      5.43E-09 Convergence criterion met
 Total energy in the final basis set = -135.1527775119
   12    -135.1527809153      5.43E-09 Convergence criterion met
 Total energy in the final basis set = -135.1527809153

             Standard Nuclear Orientation (Angstroms)
    I     Atom           X                Y                Z
 ----------------------------------------------------------------
    1      C       1.1653229547    -0.1032759238    -0.4196720153
    2      C       0.0295798871     0.3951257011     0.4669247158
    3      N      -1.2429461023    -0.3024459801     0.2987340790
    4      H       2.0870390613     0.4529743143    -0.2440737372
    5      H       0.9031313793     0.0008068996    -1.4735386328
    6      H       1.3661246523    -1.1588110220    -0.2290622419
    7      H      -0.1461151276     1.4558542414     0.2800018239
    8      H       0.3190395116     0.3148569279     1.5156237463
    9      H      -1.5591776027    -0.2123068177    -0.6598599208
   10      H      -1.1180017605    -1.2943808080     0.4652799236
 ----------------------------------------------------------------

   12    -135.1527814262      5.44E-09 Convergence criterion met
 Total energy in the final basis set = -135.1527814262

                    Orbital Energies (a.u.)
 --------------------------------------------------------------

 Alpha MOs
 -- Occupied --
-14.719 -10.556 -10.524  -0.985  -0.823  -0.694  -0.570  -0.506
 -0.478  -0.474  -0.422  -0.399  -0.304

 Beta MOs
 -- Occupied --
-14.719 -10.556 -10.524  -0.985  -0.823  -0.694  -0.570  -0.506
 -0.478  -0.474  -0.422  -0.399  -0.304

          Ground-State Mulliken Net Atomic Charges

     Atom                 Charge (a.u.)    Spin (a.u.)
  --------------------------------------------------------
      1 C                    -0.322865       0.000000
      2 C                    -0.135469       0.000000
      3 N                    -0.419806       0.000000
      4 H                     0.099660       0.000000
      5 H                     0.101197       0.000000
      6 H                     0.101401       0.000000
      7 H                     0.117429       0.000000
      8 H                     0.116873       0.000000
      9 H                     0.170684       0.000000
     10 H                     0.170895       0.000000
  --------------------------------------------------------
  Sum of atomic charges =     0.000000

                    Cartesian Multipole Moments
 -----------------------------------------------------------------
    Charge (ESU x 10^10)
                 0.0000
    Dipole Moment (Debye)
         X       0.8633      Y      -0.4890      Z      -0.8143
       Tot       1.2836
    Quadrupole Moments (Debye-Ang)
        XX     -23.4885     XY       0.9612     YY     -19.4199
        XZ       2.6621     YZ      -0.5801     ZZ     -20.9252

 Final energy is   -135.152781426182
 **  OPTIMIZATION CONVERGED  **
 Total job time:  10388.41s(wall), 8669.85s(cpu)
        *  Thank you very much for using Q-Chem.  Have a nice day.  *
