 Q-Chem 4.4, Q-Chem, Inc., Pleasanton, CA (2016)
 Q-Chem 4.4.0 for Intel X86 Linux

User input:
--------------------------------------------------------------
$molecule
0 1
C       1.2290994110    -0.2648951642     0.0000138730
C      -0.0424050155     0.5765707840    -0.0000412512
N      -1.2895781384    -0.1844626053    -0.0000368083
H       2.1239586838     0.3574632141     0.0000698482
H       1.2639839348    -0.9052870957    -0.8820713487
H       1.2638121798    -0.9052086023     0.8821487436
H      -0.0520579379     1.2294511413    -0.8732462014
H      -0.0521267345     1.2293275761     0.8732588111
H      -1.3202626955    -0.7925234756    -0.8100269567
H      -1.3204268343    -0.7920382396     0.8102890308
$end

!Scan at UM06-2x/cc-pVTZ level and basis set
$rem
JOBTYPE       pes_scan
METHOD        M06-2X
UNRESTRICTED  true
BASIS         cc-pvtz
$end

$scan
tors 4 1 2 3 -180 180 10
$end

--------------------------------------------------------------

   12    -135.1530280731      5.32E-09 Convergence criterion met
 Total energy in the final basis set = -135.1530280731
 Final energy is   -135.153028073137
 **  OPTIMIZATION CONVERGED  **
   12    -135.1530280705      5.32E-09 Convergence criterion met
 Total energy in the final basis set = -135.1530280705
   12    -135.1514773366      6.02E-09 Convergence criterion met
 Total energy in the final basis set = -135.1514773366
   12    -135.1519979582      6.15E-09 Convergence criterion met
 Total energy in the final basis set = -135.1519979582
   12    -135.1524237623      5.97E-09 Convergence criterion met
 Total energy in the final basis set = -135.1524237623
   12    -135.1525307607      5.68E-09 Convergence criterion met
 Total energy in the final basis set = -135.1525307607
   12    -135.1525547010      5.49E-09 Convergence criterion met
 Total energy in the final basis set = -135.1525547010
 **  OPTIMIZATION CONVERGED  **
 **  OPTIMIZATION CONVERGED  **
   12    -135.1524268793      5.33E-09 Convergence criterion met
 Total energy in the final basis set = -135.1524268793
   12    -135.1516260192      6.11E-09 Convergence criterion met
 Total energy in the final basis set = -135.1516260192
   12    -135.1521766521      6.27E-09 Convergence criterion met
 Total energy in the final basis set = -135.1521766521
   12    -135.1526478046      6.10E-09 Convergence criterion met
 Total energy in the final basis set = -135.1526478046
   12    -135.1527548399      5.80E-09 Convergence criterion met
 Total energy in the final basis set = -135.1527548399
   12    -135.1527765298      5.64E-09 Convergence criterion met
 Total energy in the final basis set = -135.1527765298

             Standard Nuclear Orientation (Angstroms)
    I     Atom           X                Y                Z
 ----------------------------------------------------------------
    1      C       1.1712000189    -0.4259672593    -0.1630302395
    2      C      -0.2171814970     0.1042313190    -0.5012553892
    3      N      -1.0598386343     0.4288014279     0.6464442967
    4      H       1.7457129270    -0.6474972264    -1.0634810658
    5      H       1.1018799945    -1.3430677316     0.4234028126
    6      H       1.7289183259     0.3041158821     0.4245426051
    7      H      -0.7516278387    -0.6245235193    -1.1110547762
    8      H      -0.1302894075     1.0047083628    -1.1108684565
    9      H      -1.1743806988    -0.3863817389     1.2375138967
   10      H      -0.6103963369     1.1339780167     1.2181440567
 ----------------------------------------------------------------

   12    -135.1527774233      5.63E-09 Convergence criterion met
 Total energy in the final basis set = -135.1527774233

                    Orbital Energies (a.u.)
 --------------------------------------------------------------

 Alpha MOs
 -- Occupied --
-14.718 -10.556 -10.523  -0.985  -0.824  -0.695  -0.570  -0.506
 -0.478  -0.474  -0.422  -0.399  -0.304

 Beta MOs
 -- Occupied --
-14.718 -10.556 -10.523  -0.985  -0.824  -0.695  -0.570  -0.506
 -0.478  -0.474  -0.422  -0.399  -0.304

          Ground-State Mulliken Net Atomic Charges

     Atom                 Charge (a.u.)    Spin (a.u.)
  --------------------------------------------------------
      1 C                    -0.315066       0.000000
      2 C                    -0.125443       0.000000
      3 N                    -0.417670       0.000000
      4 H                     0.098555       0.000000
      5 H                     0.098371       0.000000
      6 H                     0.097546       0.000000
      7 H                     0.112307       0.000000
      8 H                     0.113236       0.000000
      9 H                     0.168650       0.000000
     10 H                     0.169514       0.000000
  --------------------------------------------------------
  Sum of atomic charges =     0.000000

                    Cartesian Multipole Moments
 -----------------------------------------------------------------
    Charge (ESU x 10^10)
                 0.0000
    Dipole Moment (Debye)
         X       1.1291      Y      -0.4120      Z       0.4194
       Tot       1.2730
    Quadrupole Moments (Debye-Ang)
        XX     -24.5211     XY       1.9899     YY     -19.9910
        XZ      -0.2366     YZ       0.1080     ZZ     -19.1748

 Final energy is   -135.152777423302
 **  OPTIMIZATION CONVERGED  **
 Total job time:  9644.63s(wall), 7962.94s(cpu)
        *  Thank you very much for using Q-Chem.  Have a nice day.  *
